# vtk DataFile Version 5.1
Generated by LIGGGHTS
ASCII
DATASET POLYDATA
POINTS 2 float
0.0286186 0.00934756 -0.0157491 -0.0041499 -0.000831798 0.00264703 
VERTICES 3 2
OFFSETS vtktypeint64
0 1 2 
CONNECTIVITY vtktypeint64
0 1 
POINT_DATA 2
FIELD FieldData 16
id 1 2 int
2 1 
type 1 2 int
2 2 
mass 1 2 double
0.071414534746 0.02879412348 
v 3 2 double
-0.014511441174 -0.0084560066981 0.0054412315796 -0.088717748842 -0.020737838359 0.054455121406 
f 3 2 double
0 0 0 0 0 0 
radius 1 2 double
0.02517551871 0.018598768036 
omega 3 2 double
0.85426566572 -0.91996145668 1.0177980965 -1.5063087932 1.7913492611 -1.5942827205 
angmom 3 2 double
9.0794463047e-06 -9.1334711467e-06 1.0723748867e-05 -3.4775464613e-06 4.1879593737e-06 -3.4817943622e-06 
tq 3 2 double
0 0 0 0 0 0 
shapex 1 2 double
0.0178 0.01315 
shapey 1 2 double
0.0178 0.01315 
shapez 1 2 double
0.0178 0.01315 
TENSOR 9 2 double
-0.18484665824 0.97948685368 0.080232265337 0.075784557111 -0.0671894494 0.9948579189 0.97984101457 0.18997652842 -0.061810232212 
0.98854503892 0.095383408505 0.11696457334 -0.10606037206 0.99039283445 0.088731228764 -0.10737738828 -0.10012012216 0.98916432286 

blockiness1 1 2 double
3 3 
blockiness2 1 2 double
2 2 
c_ctact 1 2 double
0 0 
