# vtk DataFile Version 5.1
Generated by LIGGGHTS
ASCII
DATASET POLYDATA
POINTS 2 float
0.0296006 0.0099002 -0.0161286 0.00134607 0.000450314 -0.000733343 
VERTICES 3 2
OFFSETS vtktypeint64
0 1 2 
CONNECTIVITY vtktypeint64
0 1 
POINT_DATA 2
FIELD FieldData 16
id 1 2 int
2 1 
type 1 2 int
2 2 
mass 1 2 double
0.071414534746 0.02879412348 
v 3 2 double
-0.071539983742 -0.024072834339 0.038764750022 0.05272315446 0.017994664853 -0.028193116431 
f 3 2 double
1.6742349311 0.53094466569 -0.96831123103 -1.6742349311 -0.53094466569 0.96831123103 
radius 1 2 double
0.02517551871 0.018598768036 
omega 3 2 double
0.13074253827 -0.15838022983 0.14951858844 -0.46882680501 0.48964771974 -0.58400217931 
angmom 3 2 double
1.396351038e-06 -1.5741886003e-06 1.5684205593e-06 -1.0907096897e-06 1.1391776894e-06 -1.2745024133e-06 
tq 3 2 double
0.0027880580919 -0.0032802037429 0.0029641955853 -0.001811640931 0.0016962914023 -0.0021444365197 
shapex 1 2 double
0.0178 0.01315 
shapey 1 2 double
0.0178 0.01315 
shapez 1 2 double
0.0178 0.01315 
TENSOR 9 2 double
-0.1211801015 0.98297615196 0.13810600162 0.13810156261 -0.12108278191 0.98298876816 0.98297677562 0.13819133333 -0.12107771879 
0.99999996525 0.00019695742943 0.00017525892543 -0.00019698540927 0.99999996786 0.00015964562517 -0.0001752274764 -0.00015968014307 0.9999999719 

blockiness1 1 2 double
3 3 
blockiness2 1 2 double
2 2 
c_ctact 1 2 double
0 0 
