# vtk DataFile Version 5.1
Generated by LIGGGHTS
ASCII
DATASET POLYDATA
POINTS 2 float
0.0284154 0.00922917 -0.0156729 -0.00539195 -0.00112213 0.00340941 
VERTICES 3 2
OFFSETS vtktypeint64
0 1 2 
CONNECTIVITY vtktypeint64
0 1 
POINT_DATA 2
FIELD FieldData 16
id 1 2 int
2 1 
type 1 2 int
2 2 
mass 1 2 double
0.071414534746 0.02879412348 
v 3 2 double
-0.014511441174 -0.0084560066981 0.0054412315796 -0.088717748842 -0.020737838359 0.054455121406 
f 3 2 double
0 0 0 0 0 0 
radius 1 2 double
0.02517551871 0.018598768036 
omega 3 2 double
0.85502477236 -0.92005779927 1.0170733303 -1.5089668685 1.7895799053 -1.5937560983 
angmom 3 2 double
9.0794463047e-06 -9.1334711467e-06 1.0723748867e-05 -3.4775464613e-06 4.1879593737e-06 -3.4817943622e-06 
tq 3 2 double
0 0 0 0 0 0 
shapex 1 2 double
0.0178 0.01315 
shapey 1 2 double
0.0178 0.01315 
shapez 1 2 double
0.0178 0.01315 
TENSOR 9 2 double
-0.19843376146 0.97783785994 0.066761979998 0.06134025562 -0.055592900175 0.99656751025 0.9781929336 0.20184783652 -0.048949315992 
0.98293402481 0.11463149916 0.14387606569 -0.13056269325 0.98568769853 0.10664494404 -0.12959199825 -0.12360979071 0.98383257398 

blockiness1 1 2 double
3 3 
blockiness2 1 2 double
2 2 
c_ctact 1 2 double
0 0 
