# vtk DataFile Version 5.1
Generated by LIGGGHTS
ASCII
DATASET POLYDATA
POINTS 2 float
0.0283835 0.00921057 -0.0156609 -0.00558713 -0.00116775 0.00352921 
VERTICES 3 2
OFFSETS vtktypeint64
0 1 2 
CONNECTIVITY vtktypeint64
0 1 
POINT_DATA 2
FIELD FieldData 16
id 1 2 int
2 1 
type 1 2 int
2 2 
mass 1 2 double
0.071414534746 0.02879412348 
v 3 2 double
-0.014511441174 -0.0084560066981 0.0054412315796 -0.088717748842 -0.020737838359 0.054455121406 
f 3 2 double
0 0 0 0 0 0 
radius 1 2 double
0.02517551871 0.018598768036 
omega 3 2 double
0.85514497444 -0.92007116557 1.016960175 -1.5093866498 1.7893079823 -1.5936639027 
angmom 3 2 double
9.0794463047e-06 -9.1334711467e-06 1.0723748867e-05 -3.4775464613e-06 4.1879593737e-06 -3.4817943622e-06 
tq 3 2 double
0 0 0 0 0 0 
shapex 1 2 double
0.0178 0.01315 
shapey 1 2 double
0.0178 0.01315 
shapez 1 2 double
0.0178 0.01315 
TENSOR 9 2 double
-0.20054815834 0.97754975733 0.064629003808 0.059054014628 -0.053786848296 0.99680469416 0.97790237731 0.20372394778 -0.0469413843 
0.9819525228 0.11759208335 0.1481261115 -0.13444327225 0.98486399166 0.10939800952 -0.13301973358 -0.12733821058 0.98289914569 

blockiness1 1 2 double
3 3 
blockiness2 1 2 double
2 2 
c_ctact 1 2 double
0 0 
