# vtk DataFile Version 5.1
Generated by LIGGGHTS
ASCII
DATASET POLYDATA
POINTS 2 float
0.0295383 0.0098787 -0.0160956 0.00136339 0.000457779 -0.000740381 
VERTICES 3 2
OFFSETS vtktypeint64
0 1 2 
CONNECTIVITY vtktypeint64
0 1 
POINT_DATA 2
FIELD FieldData 16
id 1 2 int
2 1 
type 1 2 int
2 2 
mass 1 2 double
0.071414534746 0.02879412348 
v 3 2 double
-0.040852571521 -0.014983574057 0.020580210833 -0.023387072262 -0.0045483132187 0.016907766973 
f 3 2 double
2.0083682202 0.55453504179 -1.201421928 -2.0083682202 -0.55453504179 1.201421928 
radius 1 2 double
0.02517551871 0.018598768036 
omega 3 2 double
0.50317715228 -0.60950229163 0.55484917718 -1.2016999382 1.1516585676 -1.4489445034 
angmom 3 2 double
5.3736584611e-06 -6.0595950136e-06 5.8189109914e-06 -2.7955209052e-06 2.6795631522e-06 -3.1621119139e-06 
tq 3 2 double
0.0039302319874 -0.0041680106192 0.004400596648 -0.0011267450594 0.0011570219717 -0.0011038902668 
shapex 1 2 double
0.0178 0.01315 
shapey 1 2 double
0.0178 0.01315 
shapez 1 2 double
0.0178 0.01315 
TENSOR 9 2 double
-0.12163848994 0.98296408461 0.13778855588 0.13772400461 -0.12076208958 0.98308118499 0.98297313103 0.13855730254 -0.1206884319 
0.99999844884 0.0013702589569 0.001106666144 -0.0013714895534 0.99999844124 0.0011119930542 -0.0011051407005 -0.0011135091104 0.99999876938 

blockiness1 1 2 double
3 3 
blockiness2 1 2 double
2 2 
c_ctact 1 2 double
0 0 
