# vtk DataFile Version 5.1
Generated by LIGGGHTS
ASCII
DATASET POLYDATA
POINTS 2 float
0.0292266 0.00970187 -0.015977 -0.00043263 3.71179e-05 0.000365364 
VERTICES 3 2
OFFSETS vtktypeint64
0 1 2 
CONNECTIVITY vtktypeint64
0 1 
POINT_DATA 2
FIELD FieldData 16
id 1 2 int
2 1 
type 1 2 int
2 2 
mass 1 2 double
0.071414534746 0.02879412348 
v 3 2 double
-0.014511441174 -0.0084560066981 0.0054412315796 -0.088717748842 -0.020737838359 0.054455121406 
f 3 2 double
0 0 0 0 0 0 
radius 1 2 double
0.02517551871 0.018598768036 
omega 3 2 double
0.85205688819 -0.91955703 1.0200126482 -1.4985234807 1.7970241058 -1.5952327383 
angmom 3 2 double
9.0794463046e-06 -9.1334711467e-06 1.0723748867e-05 -3.4775464613e-06 4.1879593737e-06 -3.4817943622e-06 
tq 3 2 double
0 0 0 0 0 0 
shapex 1 2 double
0.0178 0.01315 
shapey 1 2 double
0.0178 0.01315 
shapez 1 2 double
0.0178 0.01315 
TENSOR 9 2 double
-0.14287960256 0.98250834523 0.11942684253 0.11787339888 -0.10291410469 0.9876814005 0.982695925 0.15519677381 -0.10110727171 
0.99869950217 0.033829515688 0.038142735009 -0.035030726708 0.99889670042 0.03127666974 -0.037042577556 -0.032572162225 0.99878270995 

blockiness1 1 2 double
3 3 
blockiness2 1 2 double
2 2 
c_ctact 1 2 double
0 0 
