# vtk DataFile Version 5.1
Generated by LIGGGHTS
ASCII
DATASET POLYDATA
POINTS 2 float
0.0286897 0.00938899 -0.0157757 -0.00371519 -0.000730182 0.0023802 
VERTICES 3 2
OFFSETS vtktypeint64
0 1 2 
CONNECTIVITY vtktypeint64
0 1 
POINT_DATA 2
FIELD FieldData 16
id 1 2 int
2 1 
type 1 2 int
2 2 
mass 1 2 double
0.071414534746 0.02879412348 
v 3 2 double
-0.014511441174 -0.0084560066981 0.0054412315796 -0.088717748842 -0.020737838359 0.054455121406 
f 3 2 double
0 0 0 0 0 0 
radius 1 2 double
0.02517551871 0.018598768036 
omega 3 2 double
0.85400239749 -0.9199231347 1.0180536361 -1.5053843584 1.7919841165 -1.5944424131 
angmom 3 2 double
9.0794463047e-06 -9.1334711467e-06 1.0723748867e-05 -3.4775464613e-06 4.1879593737e-06 -3.4817943622e-06 
tq 3 2 double
0 0 0 0 0 0 
shapex 1 2 double
0.0178 0.01315 
shapey 1 2 double
0.0178 0.01315 
shapez 1 2 double
0.0178 0.01315 
TENSOR 9 2 double
-0.18003816959 0.9799885605 0.084903938554 0.08079649661 -0.071289776904 0.99417789849 0.98033575046 0.18584990987 -0.066344761462 
0.99024832894 0.088483717461 0.10760519869 -0.097567660873 0.99181987057 0.08230368091 -0.099442438592 -0.091999870021 0.99078111878 

blockiness1 1 2 double
3 3 
blockiness2 1 2 double
2 2 
c_ctact 1 2 double
0 0 
