# vtk DataFile Version 5.1
Generated by LIGGGHTS
ASCII
DATASET POLYDATA
POINTS 2 float
0.0294849 0.00985238 -0.0160739 0.00114656 0.000406256 -0.000603948 
VERTICES 3 2
OFFSETS vtktypeint64
0 1 2 
CONNECTIVITY vtktypeint64
0 1 
POINT_DATA 2
FIELD FieldData 16
id 1 2 int
2 1 
type 1 2 int
2 2 
mass 1 2 double
0.071414534746 0.02879412348 
v 3 2 double
-0.014304473372 -0.0084025359471 0.0053177018794 -0.089231065708 -0.020870455308 0.054761496979 
f 3 2 double
-0.23394480976 -0.0618761232 0.14321952145 0.23394480976 0.0618761232 -0.14321952145 
radius 1 2 double
0.02517551871 0.018598768036 
omega 3 2 double
0.85460177229 -0.9232871471 1.0253891805 -1.500729812 1.8072962557 -1.6022176077 
angmom 3 2 double
9.1163014788e-06 -9.1727363514e-06 1.0770140543e-05 -3.4901457134e-06 4.2058852712e-06 -3.4967833913e-06 
tq 3 2 double
-0.00059826259851 0.00068104858848 -0.00071098998698 0.00020261372724 -0.00024155834074 0.00025458539527 
shapex 1 2 double
0.0178 0.01315 
shapey 1 2 double
0.0178 0.01315 
shapez 1 2 double
0.0178 0.01315 
TENSOR 9 2 double
-0.12449445202 0.98291930237 0.13553883739 0.13520133476 -0.1185226901 0.98370370082 0.98296578297 0.14079068492 -0.11813658428 
0.99996587253 0.0060489468217 0.0056270791148 -0.0060785803127 0.99996766944 0.0052641183307 -0.0055950548164 -0.005298143332 0.99997031208 

blockiness1 1 2 double
3 3 
blockiness2 1 2 double
2 2 
c_ctact 1 2 double
0 0 
