# vtk DataFile Version 5.1
Generated by LIGGGHTS
ASCII
DATASET POLYDATA
POINTS 2 float
0.029547 0.00988185 -0.0161001 0.00136666 0.000458295 -0.000742916 
VERTICES 3 2
OFFSETS vtktypeint64
0 1 2 
CONNECTIVITY vtktypeint64
0 1 
POINT_DATA 2
FIELD FieldData 16
id 1 2 int
2 1 
type 1 2 int
2 2 
mass 1 2 double
0.071414534746 0.02879412348 
v 3 2 double
-0.046595735188 -0.016590396749 0.02401527971 -0.0091430074437 -0.0005631078695 0.0083881867238 
f 3 2 double
2.0835736424 0.5905865639 -1.2456485961 -2.0835736424 -0.5905865639 1.2456485961 
radius 1 2 double
0.02517551871 0.018598768036 
omega 3 2 double
0.42906330774 -0.52393981478 0.47156157358 -1.0977266529 1.0500581556 -1.337661344 
angmom 3 2 double
4.5825488732e-06 -5.2090631813e-06 4.9449613548e-06 -2.5536875758e-06 2.4431278719e-06 -2.919252184e-06 
tq 3 2 double
0.0039579145158 -0.0043112524054 0.0043143897807 -0.0012891975311 0.001206158846 -0.0013226617411 
shapex 1 2 double
0.0178 0.01315 
shapey 1 2 double
0.0178 0.01315 
shapez 1 2 double
0.0178 0.01315 
TENSOR 9 2 double
-0.12151289054 0.98296739386 0.13787574129 0.13782812503 -0.12085004231 0.98305578439 0.98297407157 0.13845710484 -0.1207957149 
0.99999901171 0.0010914822405 0.00088614580168 -0.0010922639085 0.99999901443 0.00088209436165 -0.00088518213799 -0.00088306139496 0.99999921833 

blockiness1 1 2 double
3 3 
blockiness2 1 2 double
2 2 
c_ctact 1 2 double
0 0 
