# vtk DataFile Version 5.1
Generated by LIGGGHTS
ASCII
DATASET POLYDATA
POINTS 2 float
0.0294978 0.00986034 -0.0160782 0.00123929 0.000428229 -0.000661277 
LINES 2 2
OFFSETS vtktypeint64
0 2 
CONNECTIVITY vtktypeint64
0 1 
CELL_DATA 1
FIELD FieldData 5
force 3 1 double
0.15082011888 0.025477031591 -0.076708958867 
force_normal 3 1 double
0.14277239386 0.047654477925 -0.077891859619 
force_tangential 3 1 double
0.0080477250186 -0.022177446334 0.0011829007521 
contact_area 1 1 double
0.00059736734719 
delta 1 1 double
0.00011302680796 
