# vtk DataFile Version 5.1
Generated by LIGGGHTS
ASCII
DATASET POLYDATA
POINTS 2 float
0.0294849 0.00985238 -0.0160739 0.00114656 0.000406256 -0.000603948 
LINES 2 2
OFFSETS vtktypeint64
0 2 
CONNECTIVITY vtktypeint64
0 1 
CELL_DATA 1
FIELD FieldData 5
force 3 1 double
-0.23376782804 -0.061825084447 0.14311715377 
force_normal 3 1 double
-0.23596579693 -0.078655330834 0.12881410803 
force_tangential 3 1 double
0.0021979688928 0.016830246387 0.014303045739 
contact_area 1 1 double
0.00059265230247 
delta 1 1 double
7.7227454212e-06 
