# vtk DataFile Version 5.1
Generated by LIGGGHTS
ASCII
DATASET POLYDATA
POINTS 2 float
0.0295137 0.00986888 -0.016084 0.00132458 0.000448762 -0.000714858 
LINES 2 2
OFFSETS vtktypeint64
0 2 
CONNECTIVITY vtktypeint64
0 1 
CELL_DATA 1
FIELD FieldData 5
force 3 1 double
1.2660869373 0.31692416553 -0.74700662751 
force_normal 3 1 double
1.2628529089 0.42201459324 -0.68852574697 
force_tangential 3 1 double
0.0032340283832 -0.10509042771 -0.058480880533 
contact_area 1 1 double
0.00060148688547 
delta 1 1 double
0.00020579016105 
