# vtk DataFile Version 5.1
Generated by LIGGGHTS
ASCII
DATASET POLYDATA
POINTS 2 float
0.0296078 0.00990265 -0.0161325 0.00134052 0.000448424 -0.000730359 
LINES 2 2
OFFSETS vtktypeint64
0 2 
CONNECTIVITY vtktypeint64
0 1 
CELL_DATA 1
FIELD FieldData 5
force 3 1 double
1.5582483846 0.49844696259 -0.8947223817 
force_normal 3 1 double
1.5705189368 0.5252720698 -0.85573653405 
force_tangential 3 1 double
-0.012270552175 -0.026825107216 -0.038985847651 
contact_area 1 1 double
0.00059702877903 
delta 1 1 double
0.00012651224319 
