# vtk DataFile Version 5.1
Generated by LIGGGHTS
ASCII
DATASET POLYDATA
POINTS 2 float
0.0295061 0.00986518 -0.016081 0.00129344 0.000441251 -0.000695144 
VERTICES 3 2
OFFSETS vtktypeint64
0 1 2 
CONNECTIVITY vtktypeint64
0 1 
POINT_DATA 2
FIELD FieldData 16
id 1 2 int
2 1 
type 1 2 int
2 2 
mass 1 2 double
0.071414534746 0.02879412348 
v 3 2 double
-0.016242067517 -0.0086046413381 0.0059792214778 -0.084425488469 -0.020369198082 0.053120811011 
f 3 2 double
0.78570356428 0.18644440312 -0.45513824168 -0.78570356428 -0.18644440312 0.45513824168 
radius 1 2 double
0.02517551871 0.018598768036 
omega 3 2 double
0.84117420546 -0.96213162668 0.96875783922 -1.5374501018 1.6319112024 -1.7381360642 
angmom 3 2 double
8.9781908492e-06 -9.5622050707e-06 1.0167843108e-05 -3.5761706687e-06 3.7973383134e-06 -3.7932783801e-06 
tq 3 2 double
0.0016666544411 -0.0013828903845 0.0022365979953 -0.00024606476129 0.00063090406002 -9.2285248102e-05 
shapex 1 2 double
0.0178 0.01315 
shapey 1 2 double
0.0178 0.01315 
shapez 1 2 double
0.0178 0.01315 
TENSOR 9 2 double
-0.1227288909 0.98294129824 0.1369818366 0.13679019589 -0.11995382454 0.98331049129 0.98296798607 0.13941837827 -0.11973493289 
0.99999049575 0.0033354064183 0.0028077528166 -0.0033432616722 0.99999049777 0.0027976723629 -0.0027983947624 -0.0028070328255 0.99999214475 

blockiness1 1 2 double
3 3 
blockiness2 1 2 double
2 2 
c_ctact 1 2 double
0 0 
