# vtk DataFile Version 5.1
Generated by LIGGGHTS
ASCII
DATASET POLYDATA
POINTS 2 float
0.0294904 0.00985566 -0.0160758 0.00118296 0.000414804 -0.000626315 
VERTICES 3 2
OFFSETS vtktypeint64
0 1 2 
CONNECTIVITY vtktypeint64
0 1 
POINT_DATA 2
FIELD FieldData 16
id 1 2 int
2 1 
type 1 2 int
2 2 
mass 1 2 double
0.071414534746 0.02879412348 
v 3 2 double
-0.012903922153 -0.0079953086945 0.0043716847127 -0.092704681212 -0.021880451143 0.05710778739 
f 3 2 double
-0.21311534359 -0.069882547545 0.16300675229 0.21311534359 0.069882547545 -0.16300675229 
radius 1 2 double
0.02517551871 0.018598768036 
omega 3 2 double
0.88086644523 -0.96308514656 1.0504175255 -1.5406216407 1.8197271595 -1.6666168496 
angmom 3 2 double
9.3976313047e-06 -9.5687224955e-06 1.1031523062e-05 -3.5830771051e-06 4.2347095135e-06 -3.6373037536e-06 
tq 3 2 double
-0.00067640998373 0.0011592706806 -0.00042883821366 0.00021713852796 0.00016249369539 0.00039503880246 
shapex 1 2 double
0.0178 0.01315 
shapey 1 2 double
0.0178 0.01315 
shapez 1 2 double
0.0178 0.01315 
TENSOR 9 2 double
-0.12406792587 0.98292294649 0.13590302068 0.13559410034 -0.11888234004 0.98360623685 0.98296560963 0.1404616335 -0.11852906729 
0.9999734358 0.0053996246895 0.0048960949835 -0.0054224432832 0.99997444353 0.0046593348962 -0.0048708111968 -0.004685759922 0.99997715917 

blockiness1 1 2 double
3 3 
blockiness2 1 2 double
2 2 
c_ctact 1 2 double
0 0 
