# vtk DataFile Version 5.1
Generated by LIGGGHTS
ASCII
DATASET POLYDATA
POINTS 2 float
0.029568 0.00988916 -0.0161111 0.00136449 0.000456842 -0.000742799 
VERTICES 3 2
OFFSETS vtktypeint64
0 1 2 
CONNECTIVITY vtktypeint64
0 1 
POINT_DATA 2
FIELD FieldData 16
id 1 2 int
2 1 
type 1 2 int
2 2 
mass 1 2 double
0.071414534746 0.02879412348 
v 3 2 double
-0.058293765675 -0.019994261714 0.030988587496 0.019870183572 0.0078790811416 -0.0089068537571 
f 3 2 double
2.0518071869 0.61276774419 -1.2175793322 -2.0518071869 -0.61276774419 1.2175793322 
radius 1 2 double
0.02517551871 0.018598768036 
omega 3 2 double
0.28520001349 -0.35167257267 0.31544750401 -0.85029678703 0.83193707919 -1.0562657106 
angmom 3 2 double
3.046392054e-06 -3.4962086371e-06 3.3077447959e-06 -1.9781360407e-06 1.9355743846e-06 -2.3051486606e-06 
tq 3 2 double
0.0036905297399 -0.0042162672532 0.0038843813191 -0.001623107446 0.0014089758151 -0.0018132766178 
shapex 1 2 double
0.0178 0.01315 
shapey 1 2 double
0.0178 0.01315 
shapez 1 2 double
0.0178 0.01315 
TENSOR 9 2 double
-0.12131928007 0.98297264302 0.13800875099 0.13798723341 -0.12098447243 0.98301692806 0.98297566384 0.13830235175 -0.12095992644 
0.99999968464 0.00061012066454 0.00050839844481 -0.00061037029651 0.99999969318 0.00049100598903 -0.00050809871593 -0.0004913161455 0.99999975022 

blockiness1 1 2 double
3 3 
blockiness2 1 2 double
2 2 
c_ctact 1 2 double
0 0 
