# vtk DataFile Version 5.1
Generated by LIGGGHTS
ASCII
DATASET POLYDATA
POINTS 2 float
0.0290046 0.00957249 -0.0158938 -0.00179001 -0.000280171 0.00119853 
VERTICES 3 2
OFFSETS vtktypeint64
0 1 2 
CONNECTIVITY vtktypeint64
0 1 
POINT_DATA 2
FIELD FieldData 16
id 1 2 int
2 1 
type 1 2 int
2 2 
mass 1 2 double
0.071414534746 0.02879412348 
v 3 2 double
-0.014511441174 -0.0084560066981 0.0054412315796 -0.088717748842 -0.020737838359 0.054455121406 
f 3 2 double
0 0 0 0 0 0 
radius 1 2 double
0.02517551871 0.018598768036 
omega 3 2 double
0.85285209936 -0.91972481787 1.0191964632 -1.5013328286 1.794888809 -1.594995188 
angmom 3 2 double
9.0794463046e-06 -9.1334711467e-06 1.0723748867e-05 -3.4775464613e-06 4.1879593737e-06 -3.4817943622e-06 
tq 3 2 double
0 0 0 0 0 0 
shapex 1 2 double
0.0178 0.01315 
shapey 1 2 double
0.0178 0.01315 
shapez 1 2 double
0.0178 0.01315 
TENSOR 9 2 double
-0.15842323146 0.98173858235 0.10531588515 0.10271008802 -0.089698463623 0.99065878255 0.98201462186 0.16776036944 -0.086624135742 
0.99615360983 0.056958932811 0.066585776239 -0.060529504403 0.99676389543 0.052895329351 -0.063357436193 -0.056722277312 0.99637764855 

blockiness1 1 2 double
3 3 
blockiness2 1 2 double
2 2 
c_ctact 1 2 double
0 0 
