# vtk DataFile Version 5.1
Generated by LIGGGHTS
ASCII
DATASET POLYDATA
POINTS 2 float
0.029083 0.00961815 -0.0159232 -0.00131094 -0.000168187 0.000904469 
VERTICES 3 2
OFFSETS vtktypeint64
0 1 2 
CONNECTIVITY vtktypeint64
0 1 
POINT_DATA 2
FIELD FieldData 16
id 1 2 int
2 1 
type 1 2 int
2 2 
mass 1 2 double
0.071414534746 0.02879412348 
v 3 2 double
-0.014511441174 -0.0084560066981 0.0054412315796 -0.088717748842 -0.020737838359 0.054455121406 
f 3 2 double
0 0 0 0 0 0 
radius 1 2 double
0.02517551871 0.018598768036 
omega 3 2 double
0.85256991001 -0.91966823294 1.0194835773 -1.5003364864 1.7956344556 -1.5950934387 
angmom 3 2 double
9.0794463046e-06 -9.1334711467e-06 1.0723748867e-05 -3.4775464613e-06 4.1879593737e-06 -3.4817943622e-06 
tq 3 2 double
0 0 0 0 0 0 
shapex 1 2 double
0.0178 0.01315 
shapey 1 2 double
0.0178 0.01315 
shapez 1 2 double
0.0178 0.01315 
TENSOR 9 2 double
-0.15296527335 0.98205416956 0.11032331211 0.10808961568 -0.094341053918 0.98965468752 0.98230252984 0.1633076042 -0.091718952665 
0.99720554088 0.048877829363 0.056498380823 -0.051468508924 0.99764458866 0.045346083796 -0.05414888575 -0.048127253436 0.99737238063 

blockiness1 1 2 double
3 3 
blockiness2 1 2 double
2 2 
c_ctact 1 2 double
0 0 
