# vtk DataFile Version 5.1
Generated by LIGGGHTS
ASCII
DATASET POLYDATA
POINTS 2 float
0.0294632 0.0098397 -0.0160657 0.00101347 0.000375145 -0.000522255 
VERTICES 3 2
OFFSETS vtktypeint64
0 1 2 
CONNECTIVITY vtktypeint64
0 1 
POINT_DATA 2
FIELD FieldData 16
id 1 2 int
2 1 
type 1 2 int
2 2 
mass 1 2 double
0.071414534746 0.02879412348 
v 3 2 double
-0.014511441174 -0.0084560066981 0.0054412315796 -0.088717748842 -0.020737838359 0.054455121406 
f 3 2 double
0 0 0 0 0 0 
radius 1 2 double
0.02517551871 0.018598768036 
omega 3 2 double
0.85122470281 -0.91935295933 1.0208910403 -1.4955800052 1.7993734745 -1.5953467636 
angmom 3 2 double
9.0794463046e-06 -9.1334711467e-06 1.0723748867e-05 -3.4775464613e-06 4.1879593737e-06 -3.4817943622e-06 
tq 3 2 double
0 0 0 0 0 0 
shapex 1 2 double
0.0178 0.01315 
shapey 1 2 double
0.0178 0.01315 
shapez 1 2 double
0.0178 0.01315 
TENSOR 9 2 double
-0.12605606286 0.98290480976 0.13419390434 0.13375432328 -0.1171978543 0.98406018309 0.98296472471 0.14199576716 -0.11669426759 
0.9999297173 0.0084247285654 0.0083417275595 -0.0084872702743 0.99993592611 0.0074906552941 -0.0082780863349 -0.0075609273269 0.99993715086 

blockiness1 1 2 double
3 3 
blockiness2 1 2 double
2 2 
c_ctact 1 2 double
0 0 
