# vtk DataFile Version 5.1
Generated by LIGGGHTS
ASCII
DATASET POLYDATA
POINTS 2 float
0.0296309 0.00991038 -0.0161451 0.00132077 0.000441766 -0.000719653 
VERTICES 3 2
OFFSETS vtktypeint64
0 1 2 
CONNECTIVITY vtktypeint64
0 1 
POINT_DATA 2
FIELD FieldData 16
id 1 2 int
2 1 
type 1 2 int
2 2 
mass 1 2 double
0.071414534746 0.02879412348 
v 3 2 double
-0.079556773255 -0.026652815192 0.04333168985 0.072606214754 0.024393475096 -0.039519937448 
f 3 2 double
1.1650783876 0.37918196011 -0.65095132004 -1.1650783876 -0.37918196011 0.65095132004 
radius 1 2 double
0.02517551871 0.018598768036 
omega 3 2 double
0.045416868373 -0.051913747163 0.055009701085 -0.18263744451 0.20725295342 -0.22368177659 
angmom 3 2 double
4.8481814577e-07 -5.1574660073e-07 5.7750573178e-07 -4.2490438999e-07 4.8217451686e-07 -4.8815412813e-07 
tq 3 2 double
0.0017567013101 -0.0019769021617 0.0019844446341 -0.0014421306192 0.0015201968709 -0.0016874560575 
shapex 1 2 double
0.0178 0.01315 
shapey 1 2 double
0.0178 0.01315 
shapez 1 2 double
0.0178 0.01315 
TENSOR 9 2 double
-0.12113501187 0.98297691834 0.13814009885 0.13813972722 -0.12111706957 0.98297918148 0.98297697057 0.13815583039 -0.1211166457 
0.99999999859 3.8248495772e-05 3.6865661714e-05 -3.824965702e-05 0.99999999877 3.1499258403e-05 -3.686445687e-05 -3.1500668457e-05 0.99999999882 

blockiness1 1 2 double
3 3 
blockiness2 1 2 double
2 2 
c_ctact 1 2 double
0 0 
