# vtk DataFile Version 5.1
Generated by LIGGGHTS
ASCII
DATASET POLYDATA
POINTS 2 float
0.0288798 0.00949977 -0.015847 -0.00255298 -0.000458516 0.00166684 
VERTICES 3 2
OFFSETS vtktypeint64
0 1 2 
CONNECTIVITY vtktypeint64
0 1 
POINT_DATA 2
FIELD FieldData 16
id 1 2 int
2 1 
type 1 2 int
2 2 
mass 1 2 double
0.071414534746 0.02879412348 
v 3 2 double
-0.014511441174 -0.0084560066981 0.0054412315796 -0.088717748842 -0.020737838359 0.054455121406 
f 3 2 double
0 0 0 0 0 0 
radius 1 2 double
0.02517551871 0.018598768036 
omega 3 2 double
0.85330488717 -0.91980898908 1.0187414136 -1.5029297411 1.7937197982 -1.5948063292 
angmom 3 2 double
9.0794463047e-06 -9.1334711467e-06 1.0723748867e-05 -3.4775464613e-06 4.1879593737e-06 -3.4817943622e-06 
tq 3 2 double
0 0 0 0 0 0 
shapex 1 2 double
0.0178 0.01315 
shapey 1 2 double
0.0178 0.01315 
shapez 1 2 double
0.0178 0.01315 
TENSOR 9 2 double
-0.16705113031 0.98113724194 0.097281202446 0.094081416381 -0.082354809777 0.99215239374 0.98144923809 0.17489253213 -0.078549317326 
0.9941340114 0.069637696279 0.08275360196 -0.075091823773 0.99507342903 0.064730895539 -0.077838200024 -0.070565303738 0.99446556126 

blockiness1 1 2 double
3 3 
blockiness2 1 2 double
2 2 
c_ctact 1 2 double
0 0 
