# vtk DataFile Version 5.1
Generated by LIGGGHTS
ASCII
DATASET POLYDATA
POINTS 2 float
0.0290597 0.00960462 -0.0159145 -0.00145288 -0.000201367 0.000991598 
VERTICES 3 2
OFFSETS vtktypeint64
0 1 2 
CONNECTIVITY vtktypeint64
0 1 
POINT_DATA 2
FIELD FieldData 16
id 1 2 int
2 1 
type 1 2 int
2 2 
mass 1 2 double
0.071414534746 0.02879412348 
v 3 2 double
-0.014511441174 -0.0084560066981 0.0054412315796 -0.088717748842 -0.020737838359 0.054455121406 
f 3 2 double
0 0 0 0 0 0 
radius 1 2 double
0.02517551871 0.018598768036 
omega 3 2 double
0.85265334958 -0.91968529876 1.0193983967 -1.5006311687 1.7954126023 -1.5950659647 
angmom 3 2 double
9.0794463046e-06 -9.1334711467e-06 1.0723748867e-05 -3.4775464613e-06 4.1879593737e-06 -3.4817943622e-06 
tq 3 2 double
0 0 0 0 0 0 
shapex 1 2 double
0.0178 0.01315 
shapey 1 2 double
0.0178 0.01315 
shapez 1 2 double
0.0178 0.01315 
TENSOR 9 2 double
-0.15458566501 0.98196565233 0.10884268383 0.10649880922 -0.092962970549 0.98995751916 0.98222262029 0.16462485765 -0.090207430043 
0.99691127567 0.051281727222 0.059481870306 -0.054146419509 0.99739818816 0.047592221203 -0.056886498366 -0.050665952254 0.99709422202 

blockiness1 1 2 double
3 3 
blockiness2 1 2 double
2 2 
c_ctact 1 2 double
0 0 
