# vtk DataFile Version 5.1
Generated by LIGGGHTS
ASCII
DATASET POLYDATA
POINTS 2 float
0.029547 0.00988185 -0.0161001 0.00136666 0.000458295 -0.000742916 
LINES 2 2
OFFSETS vtktypeint64
0 2 
CONNECTIVITY vtktypeint64
0 1 
CELL_DATA 1
FIELD FieldData 5
force 3 1 double
2.0799909974 0.58955818101 -1.2435339394 
force_normal 3 1 double
2.0973916587 0.70137088844 -1.1429924343 
force_tangential 3 1 double
-0.017400661263 -0.11181270744 -0.10054150517 
contact_area 1 1 double
0.00060207111799 
delta 1 1 double
0.00022464594163 
